<UPF version="">
  <PP_INFO>
    from upf To upfSO
    Author: anonymous
    Generation date: 180423
    Pseudopotential type: NC
    Element: Pb
    Functional: PBE

    Suggested minimum cutoff for wavefunctions:  50. Ry
    Suggested minimum cutoff for charge density:  18. Ry
    The Pseudo was generated with a Fully-Relativistic Calculation
    Local Potential by smoothing AE potential with Bessel fncs, cutoff radius:   0.0000

    Valence configuration: 
    nl pn  l   occ       Rcut    Rcut US       E pseu
    5D  1  2 10.00      0.000      0.000    -1.556497
    6S -1  0  2.00      0.000      0.000    -0.884942
    6P  0  1  2.00      0.000      0.000    -0.257079
  </PP_INFO>
  <!--                               -->
  <!-- END OF HUMAN READABLE SECTION -->
  <!--                               -->
  <PP_HEADER generated="from upf To upfSO"
             author="anonymous"
             date="180423"
             comment=""
             element="Pb"
             pseudo_type="NC"
             relativistic="full"
             is_ultrasoft="F"
             is_paw="F"
             is_coulomb="F"
             has_so="F"
             has_wfc="F"
             has_gipaw="F"
             paw_as_gipaw="F"
             core_correction="T"
             functional="PBE"
             z_valence="1.400000000000000E+001"
             total_psenergy="-1.203049125860000E+002"
             wfc_cutoff="60.00"
             rho_cutoff="1.781000000000000E+001"
             l_max="2"
             l_max_rho="4"
             l_local="-1"
             mesh_size="1782"
             number_of_wfc="3"
             number_of_proj="8"/>
  <PP_MESH dx="0.000000000000000E+000" mesh="1782" xmin="0.000000000000000E+000" rmax="0.000000000000000E+000"
zmesh="0.000000000000000E+000">
    <PP_R type="real" size="1782" columns="4">
 0.000000000000000E+000  1.000000000000000E-002  2.000000000000000E-002  3.000000000000000E-002 
 4.000000000000000E-002  5.000000000000000E-002  6.000000000000000E-002  7.000000000000001E-002 
 8.000000000000000E-002  9.000000000000000E-002  1.000000000000000E-001  1.100000000000000E-001 
 1.200000000000000E-001  1.300000000000000E-001  1.400000000000000E-001  1.500000000000000E-001 
 1.600000000000000E-001  1.700000000000000E-001  1.800000000000000E-001  1.900000000000000E-001 
 2.000000000000000E-001  2.100000000000000E-001  2.200000000000000E-001  2.300000000000000E-001 
 2.400000000000000E-001  2.500000000000000E-001  2.600000000000000E-001  2.700000000000000E-001 
 2.800000000000000E-001  2.900000000000000E-001  3.000000000000000E-001  3.100000000000000E-001 
 3.200000000000000E-001  3.300000000000000E-001  3.400000000000000E-001  3.500000000000000E-001 
 3.600000000000000E-001  3.700000000000000E-001  3.800000000000000E-001  3.900000000000000E-001 
 4.000000000000000E-001  4.100000000000000E-001  4.200000000000000E-001  4.300000000000000E-001 
 4.400000000000000E-001  4.500000000000000E-001  4.600000000000000E-001  4.700000000000000E-001 
 4.800000000000000E-001  4.900000000000000E-001  5.000000000000000E-001  5.100000000000000E-001 
 5.200000000000000E-001  5.300000000000000E-001  5.400000000000000E-001  5.500000000000000E-001 
 5.600000000000001E-001  5.700000000000000E-001  5.800000000000000E-001  5.900000000000000E-001 
 6.000000000000000E-001  6.100000000000000E-001  6.200000000000000E-001  6.300000000000000E-001 
 6.400000000000000E-001  6.500000000000000E-001  6.600000000000000E-001  6.700000000000000E-001 
 6.800000000000000E-001  6.899999999999999E-001  7.000000000000000E-001  7.100000000000000E-001 
 7.200000000000000E-001  7.300000000000000E-001  7.400000000000000E-001  7.500000000000000E-001 
 7.600000000000000E-001  7.700000000000000E-001  7.800000000000000E-001  7.900000000000000E-001 
 8.000000000000000E-001  8.100000000000001E-001  8.200000000000000E-001  8.300000000000000E-001 
 8.400000000000000E-001  8.500000000000000E-001  8.600000000000000E-001  8.700000000000000E-001 
 8.800000000000000E-001  8.900000000000000E-001  9.000000000000000E-001  9.100000000000000E-001 
 9.200000000000000E-001  9.300000000000000E-001  9.399999999999999E-001  9.500000000000000E-001 
 9.600000000000000E-001  9.700000000000000E-001  9.800000000000000E-001  9.900000000000000E-001 
 1.000000000000000E+000  1.010000000000000E+000  1.020000000000000E+000  1.030000000000000E+000 
 1.040000000000000E+000  1.050000000000000E+000  1.060000000000000E+000  1.070000000000000E+000 
 1.080000000000000E+000  1.090000000000000E+000  1.100000000000000E+000  1.110000000000000E+000 
 1.120000000000000E+000  1.130000000000000E+000  1.140000000000000E+000  1.150000000000000E+000 
 1.160000000000000E+000  1.170000000000000E+000  1.180000000000000E+000  1.190000000000000E+000 
 1.200000000000000E+000  1.210000000000000E+000  1.220000000000000E+000  1.230000000000000E+000 
 1.240000000000000E+000  1.250000000000000E+000  1.260000000000000E+000  1.270000000000000E+000 
 1.280000000000000E+000  1.290000000000000E+000  1.300000000000000E+000  1.310000000000000E+000 
 1.320000000000000E+000  1.330000000000000E+000  1.340000000000000E+000  1.350000000000000E+000 
 1.360000000000000E+000  1.370000000000000E+000  1.380000000000000E+000  1.390000000000000E+000 
 1.400000000000000E+000  1.410000000000000E+000  1.420000000000000E+000  1.430000000000000E+000 
 1.440000000000000E+000  1.450000000000000E+000  1.460000000000000E+000  1.470000000000000E+000 
 1.480000000000000E+000  1.490000000000000E+000  1.500000000000000E+000  1.510000000000000E+000 
 1.520000000000000E+000  1.530000000000000E+000  1.540000000000000E+000  1.550000000000000E+000 
 1.560000000000000E+000  1.570000000000000E+000  1.580000000000000E+000  1.590000000000000E+000 
 1.600000000000000E+000  1.610000000000000E+000  1.620000000000000E+000  1.630000000000000E+000 
 1.640000000000000E+000  1.650000000000000E+000  1.660000000000000E+000  1.670000000000000E+000 
 1.680000000000000E+000  1.690000000000000E+000  1.700000000000000E+000  1.710000000000000E+000 
 1.720000000000000E+000  1.730000000000000E+000  1.740000000000000E+000  1.750000000000000E+000 
 1.760000000000000E+000  1.770000000000000E+000  1.780000000000000E+000  1.790000000000000E+000 
 1.800000000000000E+000  1.810000000000000E+000  1.820000000000000E+000  1.830000000000000E+000 
 1.840000000000000E+000  1.850000000000000E+000  1.860000000000000E+000  1.870000000000000E+000 
 1.880000000000000E+000  1.890000000000000E+000  1.900000000000000E+000  1.910000000000000E+000 
 1.920000000000000E+000  1.930000000000000E+000  1.940000000000000E+000  1.950000000000000E+000 
 1.960000000000000E+000  1.970000000000000E+000  1.980000000000000E+000  1.990000000000000E+000 
 2.000000000000000E+000  2.010000000000000E+000  2.020000000000000E+000  2.030000000000000E+000 
 2.040000000000000E+000  2.050000000000000E+000  2.060000000000000E+000  2.070000000000000E+000 
 2.080000000000000E+000  2.090000000000000E+000  2.100000000000000E+000  2.110000000000000E+000 
 2.120000000000000E+000  2.130000000000000E+000  2.140000000000000E+000  2.150000000000000E+000 
 2.160000000000000E+000  2.170000000000000E+000  2.180000000000000E+000  2.190000000000000E+000 
 2.200000000000000E+000  2.210000000000000E+000  2.220000000000000E+000  2.230000000000000E+000 
 2.240000000000000E+000  2.250000000000000E+000  2.260000000000000E+000  2.270000000000000E+000 
 2.280000000000000E+000  2.290000000000000E+000  2.300000000000000E+000  2.310000000000000E+000 
 2.320000000000000E+000  2.330000000000000E+000  2.340000000000000E+000  2.350000000000000E+000 
 2.360000000000000E+000  2.370000000000000E+000  2.380000000000000E+000  2.390000000000000E+000 
 2.400000000000000E+000  2.410000000000000E+000  2.420000000000000E+000  2.430000000000000E+000 
 2.440000000000000E+000  2.450000000000000E+000  2.460000000000000E+000  2.470000000000000E+000 
 2.480000000000000E+000  2.490000000000000E+000  2.500000000000000E+000  2.510000000000000E+000 
 2.520000000000000E+000  2.530000000000000E+000  2.540000000000000E+000  2.550000000000000E+000 
 2.560000000000000E+000  2.570000000000000E+000  2.580000000000000E+000  2.590000000000000E+000 
 2.600000000000000E+000  2.610000000000000E+000  2.620000000000000E+000  2.630000000000000E+000 
 2.640000000000000E+000  2.650000000000000E+000  2.660000000000000E+000  2.670000000000000E+000 
 2.680000000000000E+000  2.690000000000000E+000  2.700000000000000E+000  2.710000000000000E+000 
 2.720000000000000E+000  2.730000000000000E+000  2.740000000000000E+000  2.750000000000000E+000 
 2.760000000000000E+000  2.770000000000000E+000  2.780000000000000E+000  2.790000000000000E+000 
 2.800000000000000E+000  2.810000000000000E+000  2.820000000000000E+000  2.830000000000000E+000 
 2.840000000000000E+000  2.850000000000000E+000  2.860000000000000E+000  2.870000000000000E+000 
 2.880000000000000E+000  2.890000000000000E+000  2.900000000000000E+000  2.910000000000000E+000 
 2.920000000000000E+000  2.930000000000000E+000  2.940000000000000E+000  2.950000000000000E+000 
 2.960000000000000E+000  2.970000000000000E+000  2.980000000000000E+000  2.990000000000000E+000 
 3.000000000000000E+000  3.010000000000000E+000  3.020000000000000E+000  3.030000000000000E+000 
 3.040000000000000E+000  3.050000000000000E+000  3.060000000000000E+000  3.070000000000000E+000 
 3.080000000000000E+000  3.090000000000000E+000  3.100000000000000E+000  3.110000000000000E+000 
 3.120000000000000E+000  3.130000000000000E+000  3.140000000000000E+000  3.150000000000000E+000 
 3.160000000000000E+000  3.170000000000000E+000  3.180000000000000E+000  3.190000000000000E+000 
 3.200000000000000E+000  3.210000000000000E+000  3.220000000000000E+000  3.230000000000000E+000 
 3.240000000000000E+000  3.250000000000000E+000  3.260000000000000E+000  3.270000000000000E+000 
 3.280000000000000E+000  3.290000000000000E+000  3.300000000000000E+000  3.310000000000000E+000 
 3.320000000000000E+000  3.330000000000000E+000  3.340000000000000E+000  3.350000000000000E+000 
 3.360000000000000E+000  3.370000000000000E+000  3.380000000000000E+000  3.390000000000000E+000 
 3.400000000000000E+000  3.410000000000000E+000  3.420000000000000E+000  3.430000000000000E+000 
 3.440000000000000E+000  3.450000000000000E+000  3.460000000000000E+000  3.470000000000000E+000 
 3.480000000000000E+000  3.490000000000000E+000  3.500000000000000E+000  3.510000000000000E+000 
 3.520000000000000E+000  3.530000000000000E+000  3.540000000000000E+000  3.550000000000000E+000 
 3.560000000000000E+000  3.570000000000000E+000  3.580000000000000E+000  3.590000000000000E+000 
 3.600000000000000E+000  3.610000000000000E+000  3.620000000000000E+000  3.630000000000000E+000 
 3.640000000000000E+000  3.650000000000000E+000  3.660000000000000E+000  3.670000000000000E+000 
 3.680000000000000E+000  3.690000000000000E+000  3.700000000000000E+000  3.710000000000000E+000 
 3.720000000000000E+000  3.730000000000000E+000  3.740000000000000E+000  3.750000000000000E+000 
 3.760000000000000E+000  3.770000000000000E+000  3.780000000000000E+000  3.790000000000000E+000 
 3.800000000000000E+000  3.810000000000000E+000  3.820000000000000E+000  3.830000000000000E+000 
 3.840000000000000E+000  3.850000000000000E+000  3.860000000000000E+000  3.870000000000000E+000 
 3.880000000000000E+000  3.890000000000000E+000  3.900000000000000E+000  3.910000000000000E+000 
 3.920000000000000E+000  3.930000000000000E+000  3.940000000000000E+000  3.950000000000000E+000 
 3.960000000000000E+000  3.970000000000000E+000  3.980000000000000E+000  3.990000000000000E+000 
 4.000000000000000E+000  4.010000000000000E+000  4.020000000000000E+000  4.030000000000000E+000 
 4.040000000000000E+000  4.050000000000000E+000  4.060000000000000E+000  4.070000000000000E+000 
 4.080000000000000E+000  4.090000000000000E+000  4.100000000000000E+000  4.110000000000000E+000 
 4.120000000000000E+000  4.130000000000000E+000  4.140000000000000E+000  4.150000000000000E+000 
 4.160000000000000E+000  4.170000000000000E+000  4.180000000000000E+000  4.190000000000000E+000 
 4.200000000000000E+000  4.210000000000000E+000  4.220000000000000E+000  4.230000000000000E+000 
 4.240000000000000E+000  4.250000000000000E+000  4.260000000000000E+000  4.270000000000000E+000 
 4.280000000000000E+000  4.290000000000000E+000  4.300000000000000E+000  4.310000000000000E+000 
 4.320000000000000E+000  4.330000000000000E+000  4.340000000000000E+000  4.350000000000000E+000 
 4.360000000000000E+000  4.370000000000000E+000  4.380000000000000E+000  4.390000000000000E+000 
 4.400000000000000E+000  4.410000000000000E+000  4.420000000000000E+000  4.430000000000000E+000 
 4.440000000000000E+000  4.450000000000000E+000  4.460000000000000E+000  4.470000000000000E+000 
 4.480000000000000E+000  4.490000000000000E+000  4.500000000000000E+000  4.510000000000000E+000 
 4.520000000000000E+000  4.530000000000000E+000  4.540000000000000E+000  4.550000000000000E+000 
 4.560000000000000E+000  4.570000000000000E+000  4.580000000000000E+000  4.590000000000000E+000 
 4.600000000000000E+000  4.610000000000000E+000  4.620000000000000E+000  4.630000000000000E+000 
 4.640000000000000E+000  4.650000000000000E+000  4.660000000000000E+000  4.670000000000000E+000 
 4.680000000000000E+000  4.690000000000000E+000  4.700000000000000E+000  4.710000000000000E+000 
 4.720000000000000E+000  4.730000000000000E+000  4.740000000000000E+000  4.750000000000000E+000 
 4.760000000000000E+000  4.770000000000000E+000  4.780000000000000E+000  4.790000000000000E+000 
 4.800000000000000E+000  4.810000000000000E+000  4.820000000000000E+000  4.830000000000000E+000 
 4.840000000000000E+000  4.850000000000000E+000  4.860000000000000E+000  4.870000000000000E+000 
 4.880000000000000E+000  4.890000000000000E+000  4.900000000000000E+000  4.910000000000000E+000 
 4.920000000000000E+000  4.930000000000000E+000  4.940000000000000E+000  4.950000000000000E+000 
 4.960000000000000E+000  4.970000000000000E+000  4.980000000000000E+000  4.990000000000000E+000 
 5.000000000000000E+000  5.010000000000000E+000  5.020000000000000E+000  5.030000000000000E+000 
 5.040000000000000E+000  5.050000000000000E+000  5.060000000000000E+000  5.070000000000000E+000 
 5.080000000000000E+000  5.090000000000000E+000  5.100000000000000E+000  5.110000000000000E+000 
 5.120000000000000E+000  5.130000000000000E+000  5.140000000000000E+000  5.150000000000000E+000 
 5.160000000000000E+000  5.170000000000000E+000  5.180000000000000E+000  5.190000000000000E+000 
 5.200000000000000E+000  5.210000000000000E+000  5.220000000000000E+000  5.230000000000000E+000 
 5.240000000000000E+000  5.250000000000000E+000  5.260000000000000E+000  5.270000000000000E+000 
 5.280000000000000E+000  5.290000000000000E+000  5.300000000000000E+000  5.310000000000000E+000 
 5.320000000000000E+000  5.330000000000000E+000  5.340000000000000E+000  5.350000000000000E+000 
 5.360000000000000E+000  5.370000000000000E+000  5.380000000000000E+000  5.390000000000000E+000 
 5.400000000000000E+000  5.410000000000000E+000  5.420000000000000E+000  5.430000000000000E+000 
 5.440000000000000E+000  5.450000000000000E+000  5.460000000000000E+000  5.470000000000000E+000 
 5.480000000000000E+000  5.490000000000000E+000  5.500000000000000E+000  5.510000000000000E+000 
 5.520000000000000E+000  5.530000000000000E+000  5.540000000000000E+000  5.550000000000000E+000 
 5.560000000000000E+000  5.570000000000000E+000  5.580000000000000E+000  5.590000000000000E+000 
 5.600000000000000E+000  5.610000000000000E+000  5.620000000000000E+000  5.630000000000000E+000 
 5.640000000000000E+000  5.650000000000000E+000  5.660000000000000E+000  5.670000000000000E+000 
 5.680000000000000E+000  5.690000000000000E+000  5.700000000000000E+000  5.710000000000000E+000 
 5.720000000000000E+000  5.730000000000000E+000  5.740000000000000E+000  5.750000000000000E+000 
 5.760000000000000E+000  5.770000000000000E+000  5.780000000000000E+000  5.790000000000000E+000 
 5.800000000000000E+000  5.810000000000000E+000  5.820000000000000E+000  5.830000000000000E+000 
 5.840000000000000E+000  5.850000000000000E+000  5.860000000000000E+000  5.870000000000000E+000 
 5.880000000000000E+000  5.890000000000000E+000  5.900000000000000E+000  5.910000000000000E+000 
 5.920000000000000E+000  5.930000000000000E+000  5.940000000000000E+000  5.950000000000000E+000 
 5.960000000000000E+000  5.970000000000000E+000  5.980000000000000E+000  5.990000000000000E+000 
 6.000000000000000E+000  6.010000000000000E+000  6.020000000000000E+000  6.030000000000000E+000 
 6.040000000000000E+000  6.050000000000000E+000  6.060000000000000E+000  6.070000000000000E+000 
 6.080000000000000E+000  6.090000000000000E+000  6.100000000000000E+000  6.110000000000000E+000 
 6.120000000000000E+000  6.130000000000000E+000  6.140000000000000E+000  6.150000000000000E+000 
 6.160000000000000E+000  6.170000000000000E+000  6.180000000000000E+000  6.190000000000000E+000 
 6.200000000000000E+000  6.210000000000000E+000  6.220000000000000E+000  6.230000000000000E+000 
 6.240000000000000E+000  6.250000000000000E+000  6.260000000000000E+000  6.270000000000000E+000 
 6.280000000000000E+000  6.290000000000000E+000  6.300000000000000E+000  6.310000000000000E+000 
 6.320000000000000E+000  6.330000000000000E+000  6.340000000000000E+000  6.350000000000000E+000 
 6.360000000000000E+000  6.370000000000000E+000  6.380000000000000E+000  6.390000000000000E+000 
 6.400000000000000E+000  6.410000000000000E+000  6.420000000000000E+000  6.430000000000000E+000 
 6.440000000000000E+000  6.450000000000000E+000  6.460000000000000E+000  6.470000000000000E+000 
 6.480000000000000E+000  6.490000000000000E+000  6.500000000000000E+000  6.510000000000000E+000 
 6.520000000000000E+000  6.530000000000000E+000  6.540000000000000E+000  6.550000000000000E+000 
 6.560000000000000E+000  6.570000000000000E+000  6.580000000000000E+000  6.590000000000000E+000 
 6.600000000000000E+000  6.610000000000000E+000  6.620000000000000E+000  6.630000000000000E+000 
 6.640000000000000E+000  6.650000000000000E+000  6.660000000000000E+000  6.670000000000000E+000 
 6.680000000000000E+000  6.690000000000000E+000  6.700000000000000E+000  6.710000000000000E+000 
 6.720000000000000E+000  6.730000000000000E+000  6.740000000000000E+000  6.750000000000000E+000 
 6.760000000000000E+000  6.770000000000000E+000  6.780000000000000E+000  6.790000000000000E+000 
 6.800000000000000E+000  6.810000000000000E+000  6.820000000000000E+000  6.830000000000000E+000 
 6.840000000000000E+000  6.850000000000000E+000  6.860000000000000E+000  6.870000000000000E+000 
 6.880000000000000E+000  6.890000000000000E+000  6.900000000000000E+000  6.910000000000000E+000 
 6.920000000000000E+000  6.930000000000000E+000  6.940000000000000E+000  6.950000000000000E+000 
 6.960000000000000E+000  6.970000000000000E+000  6.980000000000000E+000  6.990000000000000E+000 
 7.000000000000000E+000  7.010000000000000E+000  7.020000000000000E+000  7.030000000000000E+000 
 7.040000000000000E+000  7.050000000000000E+000  7.060000000000000E+000  7.070000000000000E+000 
 7.080000000000000E+000  7.090000000000000E+000  7.100000000000000E+000  7.110000000000000E+000 
 7.120000000000000E+000  7.130000000000000E+000  7.140000000000000E+000  7.150000000000000E+000 
 7.160000000000000E+000  7.170000000000000E+000  7.180000000000000E+000  7.190000000000000E+000 
 7.200000000000000E+000  7.210000000000000E+000  7.220000000000000E+000  7.230000000000000E+000 
 7.240000000000000E+000  7.250000000000000E+000  7.260000000000000E+000  7.270000000000000E+000 
 7.280000000000000E+000  7.290000000000000E+000  7.300000000000000E+000  7.310000000000000E+000 
 7.320000000000000E+000  7.330000000000000E+000  7.340000000000000E+000  7.350000000000000E+000 
 7.360000000000000E+000  7.370000000000000E+000  7.380000000000000E+000  7.390000000000000E+000 
 7.400000000000000E+000  7.410000000000000E+000  7.420000000000000E+000  7.430000000000000E+000 
 7.440000000000000E+000  7.450000000000000E+000  7.460000000000000E+000  7.470000000000000E+000 
 7.480000000000000E+000  7.490000000000000E+000  7.500000000000000E+000  7.510000000000000E+000 
 7.520000000000000E+000  7.530000000000000E+000  7.540000000000000E+000  7.550000000000000E+000 
 7.560000000000000E+000  7.570000000000000E+000  7.580000000000000E+000  7.590000000000000E+000 
 7.600000000000000E+000  7.610000000000000E+000  7.620000000000000E+000  7.630000000000000E+000 
 7.640000000000000E+000  7.650000000000000E+000  7.660000000000000E+000  7.670000000000000E+000 
 7.680000000000000E+000  7.690000000000000E+000  7.700000000000000E+000  7.710000000000000E+000 
 7.720000000000000E+000  7.730000000000000E+000  7.740000000000000E+000  7.750000000000000E+000 
 7.760000000000000E+000  7.770000000000000E+000  7.780000000000000E+000  7.790000000000000E+000 
 7.800000000000000E+000  7.810000000000000E+000  7.820000000000000E+000  7.830000000000000E+000 
 7.840000000000000E+000  7.850000000000000E+000  7.860000000000000E+000  7.870000000000000E+000 
 7.880000000000000E+000  7.890000000000000E+000  7.900000000000000E+000  7.910000000000000E+000 
 7.920000000000000E+000  7.930000000000000E+000  7.940000000000000E+000  7.950000000000000E+000 
 7.960000000000000E+000  7.970000000000000E+000  7.980000000000000E+000  7.990000000000000E+000 
 8.000000000000000E+000  8.010000000000000E+000  8.020000000000000E+000  8.029999999999999E+000 
 8.039999999999999E+000  8.050000000000001E+000  8.060000000000000E+000  8.070000000000000E+000 
 8.080000000000000E+000  8.090000000000000E+000  8.100000000000000E+000  8.109999999999999E+000 
 8.119999999999999E+000  8.130000000000001E+000  8.140000000000001E+000  8.150000000000000E+000 
 8.160000000000000E+000  8.170000000000000E+000  8.180000000000000E+000  8.190000000000000E+000 
 8.199999999999999E+000  8.210000000000001E+000  8.220000000000001E+000  8.230000000000000E+000 
 8.240000000000000E+000  8.250000000000000E+000  8.260000000000000E+000  8.270000000000000E+000 
 8.279999999999999E+000  8.289999999999999E+000  8.300000000000001E+000  8.310000000000000E+000 
 8.320000000000000E+000  8.330000000000000E+000  8.340000000000000E+000  8.350000000000000E+000 
 8.359999999999999E+000  8.369999999999999E+000  8.380000000000001E+000  8.390000000000001E+000 
 8.400000000000000E+000  8.410000000000000E+000  8.420000000000000E+000  8.430000000000000E+000 
 8.440000000000000E+000  8.449999999999999E+000  8.460000000000001E+000  8.470000000000001E+000 
 8.480000000000000E+000  8.490000000000000E+000  8.500000000000000E+000  8.510000000000000E+000 
 8.520000000000000E+000  8.529999999999999E+000  8.539999999999999E+000  8.550000000000001E+000 
 8.560000000000000E+000  8.570000000000000E+000  8.580000000000000E+000  8.590000000000000E+000 
 8.600000000000000E+000  8.609999999999999E+000  8.619999999999999E+000  8.630000000000001E+000 
 8.640000000000001E+000  8.650000000000000E+000  8.660000000000000E+000  8.670000000000000E+000 
 8.680000000000000E+000  8.690000000000000E+000  8.699999999999999E+000  8.710000000000001E+000 
 8.720000000000001E+000  8.730000000000000E+000  8.740000000000000E+000  8.750000000000000E+000 
 8.760000000000000E+000  8.770000000000000E+000  8.779999999999999E+000  8.789999999999999E+000 
 8.800000000000001E+000  8.810000000000000E+000  8.820000000000000E+000  8.830000000000000E+000 
 8.840000000000000E+000  8.850000000000000E+000  8.859999999999999E+000  8.869999999999999E+000 
 8.880000000000001E+000  8.890000000000001E+000  8.900000000000000E+000  8.910000000000000E+000 
 8.920000000000000E+000  8.930000000000000E+000  8.940000000000000E+000  8.949999999999999E+000 
 8.960000000000001E+000  8.970000000000001E+000  8.980000000000000E+000  8.990000000000000E+000 
 9.000000000000000E+000  9.010000000000000E+000  9.020000000000000E+000  9.029999999999999E+000 
 9.039999999999999E+000  9.050000000000001E+000  9.060000000000000E+000  9.070000000000000E+000 
 9.080000000000000E+000  9.090000000000000E+000  9.100000000000000E+000  9.109999999999999E+000 
 9.119999999999999E+000  9.130000000000001E+000  9.140000000000001E+000  9.150000000000000E+000 
 9.160000000000000E+000  9.170000000000000E+000  9.180000000000000E+000  9.190000000000000E+000 
 9.199999999999999E+000  9.210000000000001E+000  9.220000000000001E+000  9.230000000000000E+000 
 9.240000000000000E+000  9.250000000000000E+000  9.260000000000000E+000  9.270000000000000E+000 
 9.279999999999999E+000  9.289999999999999E+000  9.300000000000001E+000  9.310000000000000E+000 
 9.320000000000000E+000  9.330000000000000E+000  9.340000000000000E+000  9.350000000000000E+000 
 9.359999999999999E+000  9.369999999999999E+000  9.380000000000001E+000  9.390000000000001E+000 
 9.400000000000000E+000  9.410000000000000E+000  9.420000000000000E+000  9.430000000000000E+000 
 9.440000000000000E+000  9.449999999999999E+000  9.460000000000001E+000  9.470000000000001E+000 
 9.480000000000000E+000  9.490000000000000E+000  9.500000000000000E+000  9.510000000000000E+000 
 9.520000000000000E+000  9.529999999999999E+000  9.539999999999999E+000  9.550000000000001E+000 
 9.560000000000000E+000  9.570000000000000E+000  9.580000000000000E+000  9.590000000000000E+000 
 9.600000000000000E+000  9.609999999999999E+000  9.619999999999999E+000  9.630000000000001E+000 
 9.640000000000001E+000  9.650000000000000E+000  9.660000000000000E+000  9.670000000000000E+000 
 9.680000000000000E+000  9.690000000000000E+000  9.699999999999999E+000  9.710000000000001E+000 
 9.720000000000001E+000  9.730000000000000E+000  9.740000000000000E+000  9.750000000000000E+000 
 9.760000000000000E+000  9.770000000000000E+000  9.779999999999999E+000  9.789999999999999E+000 
 9.800000000000001E+000  9.810000000000000E+000  9.820000000000000E+000  9.830000000000000E+000 
 9.840000000000000E+000  9.850000000000000E+000  9.859999999999999E+000  9.869999999999999E+000 
 9.880000000000001E+000  9.890000000000001E+000  9.900000000000000E+000  9.910000000000000E+000 
 9.920000000000000E+000  9.930000000000000E+000  9.940000000000000E+000  9.949999999999999E+000 
 9.960000000000001E+000  9.970000000000001E+000  9.980000000000000E+000  9.990000000000000E+000 
 1.000000000000000E+001  1.001000000000000E+001  1.002000000000000E+001  1.003000000000000E+001 
 1.004000000000000E+001  1.005000000000000E+001  1.006000000000000E+001  1.007000000000000E+001 
 1.008000000000000E+001  1.009000000000000E+001  1.010000000000000E+001  1.011000000000000E+001 
 1.012000000000000E+001  1.013000000000000E+001  1.014000000000000E+001  1.015000000000000E+001 
 1.016000000000000E+001  1.017000000000000E+001  1.018000000000000E+001  1.019000000000000E+001 
 1.020000000000000E+001  1.021000000000000E+001  1.022000000000000E+001  1.023000000000000E+001 
 1.024000000000000E+001  1.025000000000000E+001  1.026000000000000E+001  1.027000000000000E+001 
 1.028000000000000E+001  1.029000000000000E+001  1.030000000000000E+001  1.031000000000000E+001 
 1.032000000000000E+001  1.033000000000000E+001  1.034000000000000E+001  1.035000000000000E+001 
 1.036000000000000E+001  1.037000000000000E+001  1.038000000000000E+001  1.039000000000000E+001 
 1.040000000000000E+001  1.041000000000000E+001  1.042000000000000E+001  1.043000000000000E+001 
 1.044000000000000E+001  1.045000000000000E+001  1.046000000000000E+001  1.047000000000000E+001 
 1.048000000000000E+001  1.049000000000000E+001  1.050000000000000E+001  1.051000000000000E+001 
 1.052000000000000E+001  1.053000000000000E+001  1.054000000000000E+001  1.055000000000000E+001 
 1.056000000000000E+001  1.057000000000000E+001  1.058000000000000E+001  1.059000000000000E+001 
 1.060000000000000E+001  1.061000000000000E+001  1.062000000000000E+001  1.063000000000000E+001 
 1.064000000000000E+001  1.065000000000000E+001  1.066000000000000E+001  1.067000000000000E+001 
 1.068000000000000E+001  1.069000000000000E+001  1.070000000000000E+001  1.071000000000000E+001 
 1.072000000000000E+001  1.073000000000000E+001  1.074000000000000E+001  1.075000000000000E+001 
 1.076000000000000E+001  1.077000000000000E+001  1.078000000000000E+001  1.079000000000000E+001 
 1.080000000000000E+001  1.081000000000000E+001  1.082000000000000E+001  1.083000000000000E+001 
 1.084000000000000E+001  1.085000000000000E+001  1.086000000000000E+001  1.087000000000000E+001 
 1.088000000000000E+001  1.089000000000000E+001  1.090000000000000E+001  1.091000000000000E+001 
 1.092000000000000E+001  1.093000000000000E+001  1.094000000000000E+001  1.095000000000000E+001 
 1.096000000000000E+001  1.097000000000000E+001  1.098000000000000E+001  1.099000000000000E+001 
 1.100000000000000E+001  1.101000000000000E+001  1.102000000000000E+001  1.103000000000000E+001 
 1.104000000000000E+001  1.105000000000000E+001  1.106000000000000E+001  1.107000000000000E+001 
 1.108000000000000E+001  1.109000000000000E+001  1.110000000000000E+001  1.111000000000000E+001 
 1.112000000000000E+001  1.113000000000000E+001  1.114000000000000E+001  1.115000000000000E+001 
 1.116000000000000E+001  1.117000000000000E+001  1.118000000000000E+001  1.119000000000000E+001 
 1.120000000000000E+001  1.121000000000000E+001  1.122000000000000E+001  1.123000000000000E+001 
 1.124000000000000E+001  1.125000000000000E+001  1.126000000000000E+001  1.127000000000000E+001 
 1.128000000000000E+001  1.129000000000000E+001  1.130000000000000E+001  1.131000000000000E+001 
 1.132000000000000E+001  1.133000000000000E+001  1.134000000000000E+001  1.135000000000000E+001 
 1.136000000000000E+001  1.137000000000000E+001  1.138000000000000E+001  1.139000000000000E+001 
 1.140000000000000E+001  1.141000000000000E+001  1.142000000000000E+001  1.143000000000000E+001 
 1.144000000000000E+001  1.145000000000000E+001  1.146000000000000E+001  1.147000000000000E+001 
 1.148000000000000E+001  1.149000000000000E+001  1.150000000000000E+001  1.151000000000000E+001 
 1.152000000000000E+001  1.153000000000000E+001  1.154000000000000E+001  1.155000000000000E+001 
 1.156000000000000E+001  1.157000000000000E+001  1.158000000000000E+001  1.159000000000000E+001 